{"Sildenafil": 2, "Paper plane": 3, "Adobe Systems": 3, "Microsoft PowerPoint": 2, "yellow": 3, "Theme": 3, "Automotive industry": 2, "Mass Effect 2": 3, "Hose": 2, "Formlabs": 2, "Fluid": 2, "Internet Connection Sharing": 3, "Gavin MacIntosh": 3, "International Statistical Classification of Diseases and Related Health Problems": 2, "Software": 1, "Raw material": 2, "Industry": 2, "Blade": 2, "Patch": 2, "Pipe": 2, "Software cracking": 2, "Business-to-business": 3, "Steam": 3, "Crop rotation": 3, "Black Lives Matter": 3, "Dremel": 1, "Isometric projection": 3, "FedEx Ground": 3, "On the Border Mexican Grill & Cantina": 3, "Textile industry": 3, "Screw": 2, "CMYK color model": 3, "ABC Color": 3, "Modern architecture": 3, "Virtual reality": 2, "IP address": 2, "Geometry Dash": 3, "Implant": 2, "Computer keyboard": 3, "Samsung": 3, "Vitamin": 3, "Game": 3, "AT&T": 2, "Photograph": 2, "Synonym": 3, "Airsoft gun": 2, "Lego Dimensions": 3, "Game engine": 3, "DirectX": 3, "Washington University in St. Louis": 3, "Saint Seiya: Next Dimension": 3, "Rendering": 2, "Autodesk Revit": 2, "Home": 2, "Light fixture": 3, "All India Secondary School Examination": 3, "Hospitality industry": 2, "Analog signal": 3, "Portrait Innovations Holding Company": 2, "Filename extension": 3, "Levi Strauss & Co.": 3, "Dailymotion": 3, "Jewellery": 3, "Mechanical Engineering": 2, "Civil service": 2, "AngularJS": 2, "Dentistry": 2, "Flipkart": 3, "Scalable Vector Graphics": 3, "Sorting": 3, "Privately held company": 2, "glass": 2, "Motorcycle helmet": 2, "Credit card": 3, "Painting": 3, "Computer file": 1, "Fiat Automobiles": 2, "Supply": 2, "Text": 2, "Windows Server 2003": 3, "Windows Server 2008": 3, "DeviantArt": 3, "Search algorithm": 3, "Batch file": 2, "Sari": 2, "Rooting": 3, "Electronic paper": 3, "Barcode Scanner": 2, "JavaScript": 3, "Polymerization": 2, "Pittsburgh Pirates": 3, "Read-only memory": 2, "Wheel": 2, "Three-dimensional space": 1, "Dell": 3, "Polycarbonate": 2, "Atom": 3, "UniCredit": 3, "Inner product space": 3, "American Freightways": 3, "Bootstrap": 3, "Changing room": 3, "Superuser": 3, "HP EliteBook": 3, "Directory service": 3, "Metal Slug": 2, "Sphere": 3, "green": 3, "Multi-tool": 2, "Blue": 3, "Helmet": 1, "Iron Man": 2, "Staples Center": 3, "Bunnings Warehouse": 3, "Sony Mobile Communications": 3, "Voice prosthesis": 2, "Human hair color": 3, "Pixel": 2, "Startup company": 2, "Hero": 2, "backpack": 2, "Molecule": 2, "Cutting": 2, "Malaysia Airlines Flight 370": 3, "Path": 3, "Rumor": 3, "Mercy": 3, "Koch Industries": 3, "Chris Brown": 3, "Motion": 3, "Trapezoid": 3, "Building material": 2, "Architectural rendering": 3, "Academic degree": 3, "Milling": 2, "Motherboard": 3, "Space station": 3, "Engineering mathematics": 3, "Mercator projection": 3, "Stratasys": 2, "Wireless router": 3, "Agriculture": 2, "Plot": 3, "Destiny": 2, "Tic-tac-toe": 3, "Inch": 2, "Astral plane": 3, "Waist": 3, "Telephone number": 2, "diesel": 2, "Carbon fibers": 2, "Tim Brown": 3, "Kodi": 2, "University": 2, "Metal": 1, ".NET Framework": 3, "Planet": 3, "St. Louis Park": 3, "Scarf": 3, "Renting": 3, "Sketch": 2, "Software Testing": 2, "Nail": 2, "Titanium": 3, "IntelliJ IDEA": 3, "Costume": 2, "Girlfriend": 3, "Chair": 2, "Clip art": 3, "Stanford University": 3, "Tarpaulin": 3, "Computer mouse": 3, "Hookah": 2, "Psychological projection": 3, "Ammunition": 2, "Website": 3, "Pitcher": 3, "Volkswagen": 2, "iOS jailbreaking": 3, "Dividend": 2, "Action Film": 3, "Collar": 3, "Polypropylene": 2, "Microsoft account": 3, "Machine learning": 3, "Short hair": 3, "Waxing": 2, "Charleston": 3, "Backup": 2, "Video projector": 3, "Code": 2, "Microwave oven": 3, "CustomInk": 3, "St. Louis Post-Dispatch": 2, "Ultrasound": 2, "Unix": 3, "Adele": 3, "Styrene-butadiene": 2, "User experience design": 3, "Galaxy": 3, "3d printer": 0, "Bioplastic": 2, "Standard Template Library": 2, "Android Lollipop": 3, "Rage Against the Machine": 3, "Methodology": 3, "Animation": 2, "Owner's manual": 3, "Flight": 3, "System software": 3, "Windows Server 2012": 3, "System of linear equations": 3, "Qt": 3, "Artist": 2, "Measuring instrument": 3, "Cloud computing": 2, "Aneurysm": 3, "Gujarat": 3, "Blow molding": 2, "Optics": 2, "Data transmission": 3, "Danganronpa": 3, "National Weather Service": 2, "Bakery and Cake Shop": 3, "Crop": 3, "Acid": 2, "Border Collie": 3, "Image scanner": 1, "Alchemy": 2, "Sacred": 3, "Microsoft Surface": 2, "Art museum": 3, "Web development": 3, "Knitting": 3, "Photography": 3, "Zip Code": 3, "Composite material": 2, "sugar": 3, "Post Office Ltd": 3, "Bit": 2, "Furniture": 3, "Level": 3, "Merge sort": 3, "Shader": 3, "Kilogram": 2, "Organization": 2, "Washington": 3, "FreeCharge": 3, "Aviation accidents and incidents": 3, "Clinic": 2, "Centimeter": 2, "Kid Ink": 3, "Lego": 2, "Boba Fett": 2, "Parallelogram": 3, "Textile": 2, "Pen": 1, "Sydney": 3, "Backpage": 2, "Formula": 3, "Android": 3, "Pencil": 2, "Biology": 3, "Disk partitioning": 3, "Tool": 2, "Water": 2, "Terrier": 3, "Working directory": 3, "C": 2, "Volume license key": 3, "United States Postal Service": 2, "Tree": 3, "Dongle": 3, "Oval": 3, "Hospitality": 2, "Open innovation": 2, "Nylon": 1, "Cylinder": 3, "St. Louis-style barbecue": 3, "Dance": 3, "country": 3, "Classical guitar": 2, "Weight loss": 3, "Computer": 2, "Brush": 2, "Logo": 2, "Worship": 2, "Acrylonitrile": 2, "File format": 2, "Nokia": 3, "Material Design": 2, "Office Space": 3, "height": 3, "2015 MINI Cooper": 2, "United States Border Patrol": 3, "Me Before You": 3, "Stormtrooper": 2, "Method": 3, "bathroom": 3, "C#": 3, "Sewing": 3, "Brother Industries": 2, "beer": 3, "Surface Pro": 3, "Electric motor": 2, "Definition": 2, "Staples": 2, "Computer numerical control": 1, "Textile manufacturing": 3, "GeForce": 3, "Futures contract": 2, "Squeegee": 3, "Rocket": 2, "Process": 2, "Dick Smith": 3, "Kilometer": 2, "Invoice": 3, "Plug-in": 2, "The Fosters": 3, "Staple": 3, "Hood": 2, "Menu": 3, "Pallet": 2, "Epson": 2, "Gear": 2, "U.S. County": 3, "Boiling": 3, "Laser printing": 2, "Angry Birds": 3, "Border Terrier": 3, "SmartPOST": 3, "Distance": 3, "Room": 2, "Institute": 2, "Christian Bale": 3, "Roof": 2, "HTML5": 3, "Mini": 2, "Serial ATA": 3, "Red Light District": 3, "Cartesian coordinate system": 3, "Table": 3, "Audi": 2, "Clothing": 3, "Device driver": 2, "Pantyhose": 2, "Koch family": 3, "Pulse-width modulation": 2, "Private company limited by shares": 2, "Transformation matrix": 3, "Plural": 2, "System requirements": 3, "Diagram": 3, "BitTorrent": 2, "photographer": 3, "Water conservation": 3, "Gas": 2, "E-book": 3, "Argus Panoptes": 2, "Compaq Presario": 3, "Local area network": 3, "Ayeza Khan": 3, "iOS": 3, "Length": 2, "Missouri": 2, "Light-emitting diode": 2, "Human digestive system": 3, "Wing": 3, "Acoustic music": 3, "Android Studio": 3, "Pollen": 3, "Heart": 3, "Art": 2, "Cell C": 3, "Armour": 2, "Wacom": 2, "Arc": 3, "Operator": 3, "Nanometer": 2, "Beats Electronics": 3, "Vector space": 3, "Bangladesh": 3, "Cascading Style Sheets": 3, "Acrylonitrile butadiene styrene": 1, "Major League Baseball": 3, "Cube": 3, "Genetic algorithm": 3, "Safe": 2, "Paranormal Activity: The Ghost Dimension": 3, "Convertible": 2, "Internet service provider": 2, "Asus ZenFone": 2, "AirAsia": 3, "FedEx Office": 3, "Gram": 2, "Property": 2, "Online and offline": 3, "Font": 3, "The Artist": 3, "My Kitchen Rules": 3, "Image": 2, "Ceramic": 3, "Wagah": 3, "Replicator": 2, "Printing": 1, "Tattoo": 3, "Nike": 3, "Environment": 3, "Vektroid": 3, "Cosmetics": 3, "Sexual fetishism": 2, "Stock Exchange": 2, "Clipping path": 3, "Nutrition": 2, "32-bit": 2, "India\u2013Pakistan border": 3, "Necktie": 3, "Petrol": 2, "Pattern": 2, "Plastic surgery": 2, "Bread": 3, "Service Canada": 2, "Date palm": 3, "System": 2, "Arizona Cardinals": 3, "Product key": 3, "Sintering": 3, "Requirement": 3, "Rubik's Cube": 3, "3D printing": 1, "Stylus": 2, "Engineering": 2, "Art Deco": 3, "Campeonato Brasileiro S\u00e9rie A": 3, "Coup\u00e9": 2, "Kolam": 3, "MINI Countryman": 2, "Office Online": 3, "Chemist": 3, "Central processing unit": 3, "Starch": 2, "Design thinking": 2, "Landscape architecture": 3, "free software": 2, "Verizon Wireless": 2, "Philippines": 3, "Fruitcake": 3, "Lean manufacturing": 3, "Active Directory": 3, "Bob cut": 3, "Melbourne": 3, "UK Border Agency": 3, "Airline": 3, "Def Leppard": 3, "Catholic Church": 3, "First Philippine Industrial Park": 3, "Color": 2, "Estafeta Carga A\u00e9rea": 3, "Sharpie": 3, "World Series": 3, "Jean-Marie Le Pen": 2, "MINI Cooper": 1, "Cedar Point": 3, "Command Block": 3, "Stain": 3, "Nonmetal": 2, "Samsung Electronics": 3, "Soci\u00e9t\u00e9 de transport de Laval": 2, "Entrepreneurship": 2, "Lighting": 3, "Regents Examinations": 3, "Target Corporation": 3, "Electrical cable": 2, "Crochet": 3, "Autodesk 3ds Max": 2, "Jersey": 3, "Virtual machine": 3, "SAP SE": 2, "Tap": 2, "Pronoun": 3, "Eye color": 3, "Canon": 2, "HP LaserJet": 2, "Tag": 3, "Public service": 2, "Sander": 2, "MPEG-4 Part 14": 3, "Pen pal": 2, "Diode": 2, "Gravity": 3, "Label": 2, "Orange": 3, "the arts": 3, "Photographic printing": 2, "Perimeter": 3, "Star Wars Episode VII": 3, "Sublimation": 3, "Personal computer": 2, "Brewing": 2, "Heat": 3, "Texture mapping": 3, "Dietary fiber": 2, "Stocking": 2, "Beige": 3, "Liter": 2, "Pest": 2, "2007 MINI Cooper": 2, "Slope": 3, "Boston": 3, "Kogan.com": 3, "High Point": 3, "Technology": 1, "Anime": 3, "Lid": 2, "Matrix": 3, "Microsoft Windows": 2, "Printer Command Language": 3, "Import": 2, "Stamen": 3, "Metal Gear Solid V: The Phantom Pain": 2, "Australia": 3, "Diet": 2, "Automation": 2, "Nikon": 3, "War Machine": 3, "Corporation": 3, "Media Transfer Protocol": 3, "Dimension Data": 3, "Bhojpuri": 3, "Wearable technology": 2, "Pinshape": 2, "Melting": 2, "Melting point": 3, "Weapon": 2, "2004 MINI Cooper": 2, "Bed": 3, "chocolate": 3, "Olympus Pen": 2, "Point of sale": 3, "ASOS.com": 3, "Master of Science": 3, "League of Legends": 3, "Staple gun": 3, "Media": 3, "Scrap": 2, "Plastic bag": 2, "Object-oriented programming": 3, "Prada": 2, "Taylor Swift": 3, "3D Warehouse": 2, "Marketing": 2, "X-Plane": 3, "Computer-integrated manufacturing": 2, "LASIK": 2, "License": 2, "STL": 1, "Average": 3, "Liquid-crystal display": 2, "Server-side": 3, "Cake": 3, "Hell's Kitchen": 3, "Computer data storage": 3, "Macintosh Plus": 3, "Jeans": 3, "Under Armour": 3, "Chicago": 3, "Euclid": 3, "Shoei": 2, "Digital data": 2, "Projector": 2, "How-to": 2, "Jar": 2, "Big Macintosh": 3, "Standing": 3, "Perth": 3, "Indian Premier League": 3, "Surface Book": 3, "Nutrition facts label": 3, "Dead Space": 3, "Ruler": 2, "Cup": 2, "Landing": 3, "Millimeter": 1, "Computer-aided design": 2, "Body mass index": 3, "Vince Staples": 3, "Scripting language": 3, "Magnetic resonance imaging": 2, "Glasses": 2, "Mile": 2, "Final Fantasy XIV": 3, "Measurement": 2, "Kangana Ranaut": 3, "square": 2, "Clock": 3, "Broadband": 2, "Danganronpa: Trigger Happy Havoc": 3, "Hepatitis": 3, "Acrylic paint": 3, "Multilingual User Interface": 3, "Bachelor's degree": 2, "Pocket": 3, "Job": 2, "Key": 3, "Windows 10": 2, "Article": 3, "Rotation matrix": 3, "Textile arts": 3, "DHL Express": 3, "OpenOffice": 3, "git": 3, "Intel HD and Iris Graphics": 3, "Paytm": 3, "Security": 3, "Maharashtra": 3, "Fischer projection": 3, "Digestion": 3, "Battery": 3, "Microsoft Corporation": 2, "Google Scholar": 2, "The Color Run": 3, "Air gun": 2, "Narration": 3, "Harvey Norman": 3, "The Space Between Us": 3, "Kmart": 3, "Arduino": 1, "Thousandth of an inch": 3, "Black": 3, "Biological system": 3, "Tile": 2, "iPad Mini": 3, "Diamond": 3, "Grading": 3, "Command-line interface": 3, "Cargo aircraft": 3, "white": 3, "Data": 2, "Euclidean vector": 2, "User": 2, "Neck": 3, "Wheel sizing": 3, "Ribs": 3, "Ubuntu": 2, "iPhone 5c": 3, "Variable": 3, "Client": 3, "Page layout": 3, "Wi-Fi Direct": 3, "Analytics": 3, "Carbon dioxide": 2, "Xfinity": 2, "Container": 2, "Fiberglass": 2, "Punjabi language": 3, "HTC Desire": 3, "Puppy": 3, "Volume": 2, "Cartridge": 3, "Metal Gear Rising: Revengeance": 2, "Tablet computer": 2, "Canon EOS": 3, "Sleeve": 3, "Earth's rotation": 3, "Lego Architecture": 3, "8mm": 2, "Subscriber identity module": 3, "Infographic": 3, "Fitbit": 3, "Molar concentration": 3, "Polo shirt": 3, "Google Fiber": 2, "Radio-controlled aircraft": 3, "OpenGL": 2, "Streaming media": 2, "Research": 2, "Comma-separated values": 3, "Test": 3, "Carbon dioxide laser": 2, "Ski": 2, "Chicago Cubs": 3, "Architectural engineering": 3, "Machine gun": 2, "Sharing": 2, "Hulk": 3, "MakerBot": 1, "black": 3, "Gerardus Mercator": 3, "White people": 3, "Machine Gun Kelly": 2, "Violence": 2, "2006 MINI Cooper": 2, "Eyebrow": 3, "No Label 2": 3, "Dubbing": 2, "Two-dimensional space": 2, "Computer hardware": 3, "Machinist": 2, "Shalwar kameez": 3, "aluminum": 2, "Diwali": 3, "Lesson": 3, "Materials Science": 2, "Mathematics for 3D game programming and computer graphics": 2, "Sticker": 3, "I\u00b2C": 2, "Mackintosh": 3, "Mergers and acquisitions": 3, "Peafowl": 3, "Dhoti": 3, "Institute of Banking Personnel Selection": 3, "Data structure": 3, "Shopping": 3, "Digital camera": 3, "Graphics processing unit": 3, "Textile design": 3, "Cricket Wireless": 3, "Die grinder": 2, "System Of A Down": 3, "Polyvinyl chloride": 2, "Integrated development environment": 2, "Directory": 2, "Surgery": 2, "Cinema": 2, "Citation": 3, "Malaysia": 3, "The Escape Artist": 3, "Nissan Motor Company": 2, "Atmel AVR": 2, "Urdu poetry": 3, "Investment": 2, "Pajamas": 3, "Divorce": 2, "Line of Duty": 3, "Campeonato Brasileiro S\u00e9rie C": 3, "polo": 3, "Space Coast": 3, "Empathy": 3, "Metal Gear": 2, "Big data": 3, "Degree": 3, "Hair removal": 2, "Malaysia Airlines": 3, "Macintosh": 2, "Temperature": 3, "Odia language": 3, "Microsoft Office 2007": 3, "Google Drive": 3, "Vanilla": 3, "ARM architecture": 3, "Finish Line, Inc.": 3, "Kitchen cabinet": 3, "The Girl In The Photographs": 3, "McIntosh Laboratory": 3, "Enterprise resource planning": 2, "Fence": 3, "Office Depot": 2, "Copolymer": 2, "Chat room": 3, "Florence + the Machine": 3, "Time Machine": 3, "Bill Gates": 3, "Thermoplastic": 2, "Rest area": 3, "Surface 3": 3, "tattoo artist": 3, "Factory": 3, "Wood": 2, "Full Metal Jacket": 2, "Aircraft hijacking": 3, "Bar": 3, "Analytic geometry": 3, "Autodesk Maya": 3, "Child actor": 3, "Chart": 2, "Plane": 2, "Text file": 3, "Rust-Oleum": 3, "Software development": 3, "Goods": 2, "Bay St. Louis": 3, "Signal": 3, "Kansas City": 3, "JPEG": 3, "Tiki": 3, "Machining": 2, "Canada Border Services Agency": 3, "Officeworks": 2, "Capitalism": 3, "Physics": 3, "Kartika Sari": 3, "Chord": 3, "Nozzle": 1, "Micrometer": 2, "Firearm": 2, "United Kingdom": 3, "Immune system": 3, "Personally identifiable information": 3, "modem": 3, "Port": 3, "Pink": 3, "Service": 1, "Lactide": 2, "Pump": 2, "Apple Watch": 2, "Bharti Airtel": 3, "Computer Science": 3, "Solid-state drive": 3, "Scrolling": 3, "Washing": 2, "Headphones": 2, "Project": 2, "Graphics tablet": 2, "SketchUp": 1, "Toner": 2, "Thanks for Sharing": 3, "Lyrics": 3, "Kylie Jenner": 3, "Share": 2, "Mass Effect 3": 3, "Natural rubber": 2, "Printer driver": 2, "London": 3, "Thesis": 3, "Batch processing": 3, "Dress": 3, "Shapeways": 2, "Ciputat": 3, "Baking": 3, "IKEA": 3, "Tyga": 3, "Underweight": 2, "Fiber": 1, "New Year": 3, "Slide show": 3, "Canon EOS 600D": 3, "Geek": 3, "Interface": 3, "Software engineering": 2, "Daler Mehndi": 3, "Cash": 3, "Ed Sheeran": 3, "Idea Cellular": 3, "Communications protocol": 3, "Revolution": 2, "Relay": 2, "Revenue": 2, "industry": 1, "Cabinetry": 3, "Trade": 3, "Sam Smith": 3, "Protest": 3, "Paper": 2, "Radius": 3, "Chevron": 3, "Shopping mall": 3, "Blouse": 2, "Car wash": 2, "Cake decorating": 2, "Smart TV": 3, "Reboot": 3, "Paint": 3, "MacBook": 3, "Infinity": 3, "Opposite": 3, "Birthday": 3, "Cookie": 3, "Martin St. Louis": 3, "Icing": 3, "Trailer": 2, "Welding": 2, "Standard Paper size": 3, "Molecular geometry": 3, "Home directory": 3, "Billboard": 3, "Sorting algorithm": 3, "USB": 2, "Space": 2, "Microsoft Office 2010": 3, "Alarm clock": 3, "Microsoft Office 2013": 3, "Ink Master": 3, "Production": 2, "Computer Animation": 2, "cream": 3, "Reading": 3, "Cdiscount": 3, "Marine Le Pen": 2, "React": 3, "cinematography": 2, "Floppy disk": 3, "Dijkstra's algorithm": 3, "Dropped ceiling": 3, "mathematics": 2, "Password": 3, "Uttar Pradesh": 3, "Le Point": 3, "Polyester": 2, "Biopolymer": 2, "Eagles of Death Metal": 2, "Turkcell": 3, "building": 2, "Major": 3, "Ganesha": 3, "mass": 2, "Canada\u2013United States border": 3, "Nitrile rubber": 2, "Bra": 2, "Canvas": 3, "Discrete mathematics": 3, "Moon": 3, "Embroidery": 3, "Endless Space": 3, "The Honest Company": 2, "2016 MINI Cooper": 2, "Brown": 3, "Ceiling": 2, "Torrent file": 2, "Service design": 3, "AT&T Mobility": 3, "Construction": 2, "Strum": 3, "1080p": 2, "Sex machine": 3, "Training": 2, "HDMI": 2, "GIF": 3, "Zo\u00ebs Kitchen": 3, "DJI": 2, "Phata Poster Nikhla Hero": 3, "Salt": 3, "Copper": 3, "Alpha Industries": 3, "PDF/A": 3, "Poly(methyl methacrylate)": 2, "Trimble": 2, "Course": 2, "Motorcycle": 2, "Blond": 3, "Ring": 3, "Carpet": 3, "Surface Pro 3": 3, "Surface Pro 4": 3, "Computer-aided manufacturing": 2, "Halloween": 2, "Human voice": 2, "design": 1, "Ho Chi Minh City": 3, "Circle": 3, "Secure Digital": 2, "Data analysis": 3, "Patient": 2, "Microsoft Word": 3, "Capo": 3, "Rotation": 2, "Gift": 3, "Thai Pongal": 3, "Paranormal Activity": 3, "Dimension": 2, "Parent": 3, "Time Warner Cable": 2, "Musical ensemble": 2, "Cone": 3, "Ballpoint pen": 2, "Airplane": 3, "Border": 2, "SharePoint": 3, "family": 3, "Top": 3, "Espresso": 3, "Instance": 3, "Television set": 3, "Hewlett-Packard": 2, "Private label": 3, "T-shirt": 2, "Search engine optimization": 3, "Hong Kong": 3, "Advanced Micro Devices": 2, "Istituto Nazionale della Previdenza Sociale": 3, "door": 3, "Intel": 3, "Puzzle video game": 3, "company": 1, "Rifle": 2, "Mask": 2, "Mass": 3, "Disk storage": 2, "Router": 2, "Macintosh operating systems": 3, "Mastectomy": 2, "War Room": 3, "Adidas": 3, "The Disaster Artist": 3, "Ink": 2, "male": 3, "Seagate Technology": 3, "IBM": 3, "Logos": 3, "Windows Phone": 3, "Valve": 2, "File system": 3, "Gall\u2013Peters projection": 3, "Coldplay": 3, "Keyboard shortcut": 3, "Norm": 3, "Graphic design": 2, "Bakpia": 3, "Vector graphics": 3, "Madhya Pradesh": 3, "Rangoli": 2, "John Cooper Works": 2, "3D rendering": 3, "Telephone numbering plan": 3, "iPad Air": 3, "Worksheet": 3, "Adapter": 2, "List": 3, "Bandung": 3, "Matter": 2, "KTVI": 2, "Adobe Flash": 3, "Mexico": 3, "Plastic Memories": 2, "Warframe": 2, "Common Core State Standards Initiative": 3, "Technical standard": 3, "Linux": 2, "Film": 2, "Nerf": 2, "Charles Macintosh": 3, "Firmware": 2, "Illinois": 3, "Five-dimensional space": 3, "Proxy server": 3, "LINE": 3, "Direct Line": 3, "Dessert": 3, "Nginx": 3, "Point Blank": 3, "Walt Disney World": 3, "Surgeon": 2, "Busch Stadium": 3, "Tamil": 3, "2008 MINI Cooper": 2, "Sound": 3, "Circulatory system": 3, "Installation": 2, "Online chat": 3, "1,3-Butadiene": 2, "Lightning": 2, "Bag": 2, "Complexity": 3, "Conventional PCI": 3, "Surface area": 3, "Lace": 3, "Laptop": 3, "Telephone": 3, "Sewing machine": 3, "Accenture": 2, "Whisky": 3, "Big Brother": 3, "Marion Mar\u00e9chal-Le Pen": 2, "Application software": 2, "Linearity": 3, "Specification": 3, "Henna": 3, "Woman": 3, "Mug": 2, "Optical fiber cable": 2, "Beyblade": 2, "Mass Effect: Andromeda": 3, "Photographic film": 3, "Engine": 2, "Hand fan": 3, "macOS": 2, "Pistol": 2, "Wanted poster": 3, "Wallpaper": 3, "Performance measurement": 3, "Thingiverse": 1, "Steroid": 3, "BMW": 2, "Chocolate cake": 3, "State of matter": 3, "Class": 3, "Andhra Pradesh": 3, "Memory card": 3, "Architecture": 2, "Eric Lengyel": 3, "Clipping": 2, "United Parcel Service": 3, "FedEx": 2, "Shape": 2, "NASA": 3, "Limited company": 2, "IDEO": 3, "Sword Art Online": 3, "User interface": 2, "Prezi": 3, "Cupcake": 3, "Courier": 3, "Molding": 2, "Test method": 2, "Freight transport": 3, "Happy Wheels": 3, "St. Louis County, Missouri": 3, "Energy transformation": 3, "Bullet": 3, "Jacket": 2, "Computer programming": 2, "SpaceX": 3, "Area 51": 3, "Cancer": 2, "Avery Dennison": 3, "Cuboid": 3, "Lathe": 2, "Kundan": 3, "Caitlyn Jenner": 3, "White coat": 3, "DisplayPort": 2, "Operation Transformation": 3, "Emulsion": 3, "HP Deskjet": 2, "3d printing": 0, "Creativity": 2, "Window": 3, "Triangle": 3, "Food": 2, "Price": 2, "Customer Service": 2, "Predator": 2, "bacteria": 3, "Prosthesis": 1, "Walmart": 3, "Fullmetal Alchemist": 2, "Foot": 2, "Microsoft Office": 3, "Teacher": 3, "Wireless access point": 3, "California Pizza Kitchen": 3, "Consultant": 3, "Laser Quest": 2, "Computer-generated imagery": 3, "Wi-Fi": 2, "Dot product": 3, "Orthographic projection": 3, "Cost": 3, "Mahjong": 3, "Control system": 2, "Speed": 3, "Number line": 3, "Styrene": 2, "iTunes": 3, "Flower": 3, "Pop art": 3, "Sales and operations planning": 3, "Hat": 2, "Glock": 2, "Redmond": 3, "Internship": 3, "Drywall": 3, "High-definition television": 3, "Grog": 2, "Holy Basil": 3, "Units of measurement": 2, "HTML": 3, "Bash": 3, "Buttercream": 3, "Extrusion": 1, "Wife": 3, "Big W": 3, "Stock market": 2, "Value": 3, "Gigolo": 3, "Medicare": 2, "Plastic": 1, "Polymer": 2, "AutoCAD": 2, "Football helmet": 2, "Conditional": 3, "Heavy metal music": 2, "Ocular prosthesis": 2, "Bluetooth": 2, "Female": 3, "PHP": 3, "Microsoft OneNote": 3, "Photograph 51": 3, "Shirt": 2, "Web hosting service": 3, "Canon EOS 700D": 3, "Printer": 1, "San Francisco Bay Area": 3, "Windows Phone 8": 3, "New York City": 3, "Competition": 3, "Company of Heroes 2": 2, "Sony": 3, "Costco": 3, "Applied mathematics": 3, "Server": 2, "Vitamin C": 3, "Room temperature": 3, "Suitcase": 3, "Airline ticket": 3, "Robert Bosch GmbH": 2, "Computer graphics": 2, "Portable Network Graphics": 3, "New York & Company": 2, "baseball": 3, "Space Jam": 3, "Cotton": 2, "Collie": 3, "Compaq": 3, "Turkish": 2, "Textile printing": 3, "C More Entertainment": 3, "2013 MINI Cooper": 2, "Wax": 2, "Rectangle": 3, "Adobe Illustrator": 3, "Kingsman: The Secret Service": 2, "Ukulele": 3, "Floor": 3, "Cement": 2, "Guitar": 2, "MATLAB": 3, "9\u00d719mm Parabellum": 2, "pi": 2, "St. Louis Cardinals": 2, "Polyethylene": 2, "Liquid": 3, "fire": 2, "Switch": 2, "Drill": 2, "Foot Locker": 3, "Installation art": 3, "Injection moulding": 2, "Turbocharger": 2, "Coupon": 2, "College": 2, "Measure": 2, "Secure Shell": 2, "Dow Jones Industrial Average": 2, "Market": 2, "Intel Matrix RAID": 2, "List of utility software": 3, "Mockup": 3, "Strategy": 2, "Towing": 2, "Prison": 3, "Computer repair technician": 3, "Stock": 1, "Chemical element": 3, "Longchamp": 2, "Handbag": 2, "Silk": 3, "Mexico\u2013United States border": 3, "Shotgun": 2, "Dead Space 3": 3, "Hepatitis C": 3, "Los Angeles Rams": 2, "Pharmaceutical industry": 2, "Western Massachusetts": 3, "Ceiling fan": 3, "Countertop": 3, "Drawer": 2, "Giro": 2, "Programmer": 3, "Make-up artist": 3, "Orthotics": 2, "PowerShell": 3, "Kurta": 2, "Taxicab": 2, "Map projection": 3, "Lottery": 3, "Stitch": 3, "Made to measure": 3, "Criminal code": 3, "Comedo": 3, "Polylactic acid": 1, "Playground": 3, "Internet": 3, "Kit": 3, "Vodafone": 3, "Lipstick": 3, "Olympus Corporation": 2, "Windows XP": 3, "Washing machine": 3, "GoPro": 2, "Raspberry Pi": 1, "Fallout": 3, "The Room": 3, "Icon": 2, "World Wide Web": 3, "Three-point field goal": 3, "Die": 2, "St. Louis Blues": 2, "Mascara": 2, "Booting": 2, "Surat": 3, "Pakistan": 3, "LG Corp": 3, "Coordinate system": 3, "Black Label Society": 3, "Learning": 3, "Alibaba Group": 2, "Airsoft": 2, "Portable Document Format": 2, "Layers": 3, "Management": 2, "Java": 3, "3D Systems": 2, "Encryption": 3, "Software design pattern": 3, "Fahrenheit": 3, "DOS": 3, "Creature 3D": 2, "String": 2, "Khushi": 3, "Pittsburgh": 3, "Freelancer": 3, "Educational stage": 3, "Microsoft Security Essentials": 3, "Massachusetts": 3, "Vacuum": 2, "Button": 3, "Box": 2, "Boy": 3, "Particle": 3, "Polystyrene": 2, "Data center": 3, "Command": 2, "raspberry": 2, "NYSE": 2, "Tracking number": 3, "Top Gun": 2, "Australian Bureau of Statistics": 2, "Bedroom": 3, "Dynamic-link library": 3, "Ralph Lauren": 3, "Mayangsari": 3, "Jacob Artist": 3, "Productsup": 3, "Disk formatting": 2, "Minecraft": 3, "Bone fracture": 2, "User interface design": 3, "Toilet paper": 3, "American football": 2, "Black and white": 3, "Span and div": 3, "Adobe Acrobat": 3, "Hotspot": 3, "Hairstyle": 3, "Office": 3, "iMac": 3, "Perspective": 3, "Dress shirt": 3, "Belt": 3, "Carsharing": 3, "Interior Design Services": 2, "Zortrax": 2, "World domination": 3, "Flooring": 3, "Steve Jobs": 3, "Ice": 3, "Prism": 3, "Waste": 2, "Presentation": 3, "System of measurement": 3, "Fashion design": 3, "Disney's Art of Animation Resort": 3, "Sibling-in-law": 3, "Wizkid": 3, "Diploma": 2, "Bachelor of Science": 2, "Career": 3, "Information technology": 2, "Pointing device": 3, "Customer": 2, "Metal Gear Solid": 2, "Slogan": 3, "ICD-10": 2, "Drill bit": 2, "Nerf Blaster": 2, "Ca\u00f1on City": 3, "Boiler Room": 3, "Thought": 3, "Mozilla Firefox": 3, "Clockwise": 3, "Computer architecture": 3, "algorithm": 2, "Singing": 3, "iPad": 3, "Slot machine": 3, "Counter-Strike": 3, "iCloud": 3, "Scotch Collie": 3, "Stencil": 3, "Density": 3, "Jio": 3, "Canon EOS 1200D": 3, "Space Shuttle": 3, "Device Manager": 3, "Image file formats": 3, "Best Buy": 2, "Workshop": 3, "Mobile app": 3, "Whipped cream": 3, "Designer": 2, "Business": 2, "Object": 2, "Benchmark": 3, "Award": 2, "Profit": 3, "Mehndi": 2, "Injector": 2, "OfficeMax": 3, "Marketplace": 3, "Pyramid": 3, "Emulator": 2, "Windows 8": 2, "Windows 7": 2, "Picture frame": 3, "Home appliance": 3, "magic": 3, "Brisbane": 3, "Surface": 2, "Invention": 2, "Cincinnati Reds": 3, "Black Friday": 3, "Emergency department": 3, "Electronic cigarette": 2, "MySQL": 3, "Petroleum industry": 2, "Arrest": 3, "Camera": 2, "64-bit computing": 2, "Suit": 3, "download": 2, "Black Ink Crew: Chicago": 3, "3G": 3, "Transformation": 2, "Sacred geometry": 3, "Wedding cake": 3, "Sensor": 2, "Bhabhi": 3, "Definitions of mathematics": 3, "3D computer graphics": 1, "Grid": 3, "Line": 2, "Pest control": 2, "World of Warcraft": 3, "Air conditioning": 3, "Fox Broadcasting Company": 2, "Liposuction": 2, "Spaceflight": 3, "Reebok": 2, "MTN Group": 3, "Nickelback": 3, "Anti-lock braking system": 2, "Wood carving": 2, "Skirt": 3, "Energy": 3, "Recycling": 2, "Saint Seiya: Knights of the Zodiac": 3, "Dental implant": 2, "Arabic": 3, "Hentai": 3, "Brand": 3, "Certification mark": 3, "Handicraft": 3, "Adhesive": 2, "3D math primer for graphics and game development": 3, "Peri\u00f3dico": 3, "C&A": 3, "Safety": 2, "Telephone directory": 3, "Driver": 3, "Lens": 3, "Wedding": 3, "Screen printing": 2, "Laser": 1, "Serial port": 2, "Geometry": 2, "Noodles & Company": 2, "Five Nights at Freddy's": 3, "Gun": 1, "Merge": 3, "Mobile Web": 3, "Bottle": 2, "Kerbal Space Program": 3, "Johnnie Walker": 3, "Halloween costume": 2, "Studio C": 3, "Library": 2, "Canon EOS 7D": 3, "Video": 3, "Black Mass": 3, "Poster Girl": 3, "Fountain pen": 2, "Blu-ray disc": 2, "International Space Station": 3, "Synaptics": 3, "3D Hubs": 2, "User agent": 3, "Boston Red Sox": 3, "Communicate": 2, "Media server": 3, "Roaming": 3, "Engraving": 2, "Space Engineers": 3, "Stepper motor": 2, "Innovation management": 2, "Death metal": 2, "Rope": 2, "Level of measurement": 3, "Arc length": 3, "GrabCAD": 2, "St. Louis": 2, "Beauty": 3, "Four-dimensional space": 3, "Constipation": 2, "light": 2, "Denim": 3, "Meter": 2, "Dark matter": 3, "Tennessee": 3, "WordPress": 3, "Shawn Mendes": 3, "Music artist": 3, "Minnesota": 3, "The Good Guys": 3, "Upgrade": 2, "Washer": 2, "Dark Matter": 3, "Record label": 3, "Shell": 3, "Emergency": 3, "Exchange": 2, "Silicone": 2, "Software framework": 3, "Lactic acid": 2, "Beginners": 3, "Pressure": 2, "Hewlett Packard Enterprise": 3, "Sink": 3, "Computer security": 3, "Software architecture": 3, "clipping.": 3, "Bollywood": 2, "Solar System": 3, "Salary": 2, "Miami": 3, "Sissy": 3, "Architect": 3, "iPhone": 3, "Adobe Photoshop": 3, "Software Developer": 2, "Data recovery": 3, "Subtitle": 2, "Canon EOS 1100D": 3, "FedEx Express": 3, "Supreme": 3, "Surface tension": 3, "Staples Business Advantage": 3, "Metal detector": 2, "Celsius": 3, "Computer program": 2, "Area of a circle": 3, "Saw": 2, "jQuery": 3, "Statistics": 3, "Boyce Avenue": 3, "Stadium": 3, "Projection screen": 3, "The Force": 3, "Euclidean distance": 3, "Atif Aslam": 3, "Noise": 2, "Material": 1, "Astral projection": 3, "Cartoon": 2, "red": 3, "Aleph Objects": 2, "Random-access memory": 3, "Macintosh 128K": 3, "Lambert\u2013St. Louis International Airport": 2, "Drawing": 3, "Machine tool": 2, "Datasheet": 2, "Mercedes-Benz C-Class": 3, "Point": 2, "Shooting range": 2, "Best Ink": 3, "Landscape": 3, "Software Engineer": 2, "Mexico City": 3, "Sweater": 3, "Computed tomography": 2, "Do it yourself": 1, "Command & Conquer": 3, "Staff Selection Commission": 3, "Michael Kors": 3, "Database": 3, "Watercolor painting": 3, "Bride": 3, "R": 3, "Florida Georgia Line": 3, "Professional": 3, "Apple": 3, "steel": 2, "Mass Effect": 3, "Molar mass": 3, "Limb": 2, "Engineer": 2, "Information": 2, "Executable": 3, "Angle": 3, "Sock": 2, "Machine": 2, "USB flash drive": 2, "The Home Depot": 2, "Mercedes-Benz": 2, "Web browser engine": 3, "Panties": 2, "Visor": 2, "2001: A Space Odyssey": 3, "Parcel": 3, "Barcode": 2, "2014 MINI Cooper": 2, "Service pack": 2, "stock.xchng": 2, "Graphics": 2, "Ticket": 3, "Tension": 3, "Microsoft Excel": 3, "Solution": 3, "C++": 2, "3d print": 0, "Baggage": 3, "Ounce": 3, "Advertising": 3, "Tommy Hilfiger": 3, "Call of Duty: Black Ops II": 2, "Lock": 3, "Black Ink Crew": 3, "The Walt Disney Company": 3, "Export": 2, "Digital SLR": 3, "Fine art": 3, "Earth": 3, "Blender": 2, "Horror": 2, "Sanskara": 3, "Nasty C": 3, "Innovation": 1, "Document": 2, "Camera lens": 3, "Canon EF lens mount": 3, "Responsive web design": 2, "Le Figaro": 3, "Craft": 2, "Bengali": 3, "Cottage": 2, "Career portfolio": 3, "Apache Software Foundation": 3, "Mod": 3, "Work of art": 3, "Human back": 3, "Security Service Federal Credit Union": 2, "Apple Inc.": 2, "Objective-C": 3, "Beyblade: Metal Fusion": 2, "Biodegradation": 2, "Spirit level": 2, "Radeon": 3, "Ultimaker": 1, "Find My iPhone": 3, "Microsoft SQL Server": 3, "Reference architecture": 3, "Hasso Plattner Institute of Design": 3, "Protein": 2, "Loudspeaker": 2, "Electrical wiring": 3, "2005 MINI Cooper": 2, "Area": 2, "Computer network": 2, "Question": 3, "Unity": 3, "violet": 3, "Dye": 3, "Array data structure": 3, "Angry Birds Space": 3, "JB Hi-Fi": 3, "Video card": 2, "Boiling point": 3, "Kitchen": 2, "Poster": 2, "Profit sharing": 3, "cmd.exe": 3, "3D film": 1, "Minimalism": 3, "HP Pavilion": 3, "Web server": 3, "Calendar date": 3, "Network interface controller": 3, "Linear map": 3, "Metal Gear Solid V: Ground Zeroes": 2, "Windows RT": 3, "The UPS Store": 3, "carbon": 2, "Wireless network": 3, "Web design": 2, "Radio control": 3, "Hard disk drive": 2, "Kamasutra 3D": 2, "Toronto": 3, "Architecture 101": 3, "Lowe's": 2, "Vegas Pro": 3, "Dhanteras": 3, "Dimension W": 3, "Face": 3, "Credit": 3, "Nvidia": 3, "The Elder Scrolls V: Skyrim": 3, "Adobe InDesign": 3, "Compact disc": 3, "Irrigation": 3, "Force": 3, "Quilt": 3, "Kansas City Royals": 3, "Asus Zenfone 2 ZE551ML": 2, "Taiwan": 3, "Tire": 3, "Bangle": 3, "Street art": 3, "Wet T-shirt contest": 3, "Samsung Galaxy": 3, "INOX Leisure Limited": 3, "Fuel": 2, "Product": 2, "Samsung Galaxy Note series": 2, "Solid": 3, "Glass ceiling": 3, "Makar Sankranti": 3, "Data type": 3, "Tesla Motors": 2, "Birthday cake": 3, "Operating system": 2, "Grey": 3, "Single-lens reflex camera": 3, "Avatar": 2, "Algebra": 3, "Idea": 2, "Strap": 2, "Andromeda Galaxy": 3, "Chessboard": 3, "Social": 2, "Domain Name System": 3, "Cannabis": 2, "Shorts": 3, "San Francisco": 3, "Chocolate brownie": 3, "Wireless": 2, "Focal length": 3, "Blanket": 3, "Caesarean section": 3, "Fat": 3, "Visual Effects": 3, "Office 365": 3, "Fan": 3, "Starbucks": 3, "Closed-circuit television": 3, "Online shopping": 3, "Small form factor": 3, "MacBook Pro": 3, "Asus": 2, "Ethernet": 2, "Jamaica": 3, "Fashion": 3, "Share price": 2, "Paranormal": 3, "Emmanuel Macron": 2, "SQL": 3, "Western Digital": 3, "Video file format": 3, "Computer monitor": 2, "Sun": 3, "church": 3, "Orthogonality": 3, "Quiz": 3, "Windows Essentials": 3, "Coffee": 3, "Atomic mass": 3, "Zillow": 3, "Amputation": 2, "FileHippo": 2, "Optical fiber": 2, "Robot": 2, "Point Cook": 3, "Trainline": 3, "Chemistry": 2, "Music industry": 2, "Toilet": 3, "Weight": 3, "Migos": 3, "Kumkum Bhagya ZEETV": 3, "Carbohydrate": 2, "Civil Engineering": 3, "Black metal": 2, "PCI Express": 3, "Japan": 3, "Graph": 3, "Writing": 3, "Disruptive innovation": 2, "Portable application": 3, "mobile phone": 3, "Rough Collie": 3, "Battery charger": 3, "CBSE School": 3, "Living room": 3, "Finance": 2, "museum": 2, "JSON": 3, "BIOS": 3, "Execution": 3, "Mathematics education": 3, "Plan": 3, "MINI": 2, "Nail gun": 2, "Sheet metal": 2, "Science": 2, "Contract": 3, "Euclidean space": 3, "Ticker symbol": 2, "Bicycle": 2, "Projection": 2, "Gold": 3, "Wall": 2, "Tea": 3, "Point Break": 3, "Monoprice": 1, "Insurance": 2, "Cargo": 3, "Nutella": 3, "Bad Ink": 3, "Trousers": 3, "Graphical user interface": 3, "Electronics": 2, "Programming language": 3, "Function": 3, "Windows 8.1": 3, "Delivery": 3, "Mario": 3, "book": 3, "Desk": 3, "Project Spark": 3, "Metric system": 2, "Manufacturing": 2, "illusion": 3, "Structure": 2, "HP ProBook": 3, "2003 MINI Cooper": 2, "Miami Ink": 3, "Organic matter": 3, "4G": 3, "Michaels": 3, "Cimpress": 3, "Fondant icing": 3, "MetroPCS Communications, Inc.": 2, "Paper Towns": 3, "Plastic wrap": 2, "Shooting": 2}